{
	"name":"Zinc",
	"properties" : {
		"symbol" : "Zn",
		"frenchName" : "Zinc",
		"atomicNumber" :  "30",
		"meltingPoint" : { 
								"value" : "692.68",
								"description" : "in Kelvin"
								},
		"boilingPoint" : {
								"value" : "1180",
								"description" : "in Kelvin"
								},
		"density" : { 
						"value" : "7.14",
						"description" : " in pm"
						}
	},
	"information":{
		"firstUse" : {
						"value" : "Metallurgistes Indiens 1000 ans av. J-C",
						"description" : "First use and story about it"
						},
		"Universe":{
						"value" : "String",
						"description" : "URL vers infos"
						},
		"InChIKey":{
						"value" : "HCHKCACWOHOZIP-UHFFFAOYSA-N",
						"description" : "the InChiKey corresponding to the symbol"
						}
	}
}